# vtk DataFile Version 2.0
Particle Simulation Data
ASCII
DATASET UNSTRUCTURED_GRID
POINTS 100 double
0.000755886 9.99914 0.000130411
1.00028 9.99924 0.000562747
2.0014 9.99993 0.000712879
3.00135 9.99985 9.9991
3.99965 9.99926 0.000992945
4.99981 9.99918 0.000591522
6.00098 0.000605981 0.00119293
7.00032 9.99918 0.000390542
7.99903 0.000660476 0.000585755
9.00099 9.99972 9.99918
0.00106356 0.998253 9.99858
0.999836 0.999423 9.99831
2.00041 0.999741 9.99808
3.00029 0.99747 9.99968
3.99968 0.99952 9.99891
5.0008 1.00133 0.000598552
6.00037 0.999911 0.000119738
7.00085 0.998287 9.99894
7.99956 0.999003 0.00115748
9.00178 0.998627 9.99948
0.00217204 1.99982 0.000401545
1.00009 2.00031 0.000549818
2.00238 2.00051 0.000302035
2.99944 2.00098 0.000314605
3.99914 2.00027 9.99856
4.99977 1.99939 0.00340246
5.99993 2.00023 9.99887
6.99875 2.00065 0.00052852
7.9991 1.99978 9.99923
8.9998 1.99957 6.42976e-05
9.99999 2.99896 9.99912
0.998119 2.99917 0.00138958
2.00152 2.99876 0.00129192
2.99901 2.99955 9.99992
4.00043 3 9.999
5.00032 3.00079 9.99868
5.99923 3.00188 0.000574882
6.99992 2.99648 9.99967
8 2.99906 9.99984
9.00069 3.00095 9.99861
9.99992 4.00052 9.99996
0.999775 3.99875 9.9986
2.00159 4.00079 0.00106414
2.99838 4.00024 0.00162332
3.99887 3.99897 9.99891
5.00086 3.99939 9.99975
5.99832 3.9992 0.00102248
6.99914 4.00114 1.51181e-05
8.00028 4.00061 9.99987
9.00083 3.99879 0.000465198
0.00204638 5.00158 0.000787611
1.00033 4.9987 0.00105523
1.99921 5.00088 5.21323e-05
3.00011 4.9997 9.99912
4.00103 4.99942 9.99929
4.99848 4.99691 0.00117118
5.99982 4.99964 0.000495811
6.99785 4.99906 9.99887
8.00133 5.00145 0.000391193
9.00006 4.99938 0.0003282
9.9987 5.99948 9.99951
0.999882 5.99995 0.000149922
2.00022 6.00071 0.00070497
3.00111 5.99872 0.00140474
4.00015 5.9981 9.99917
5.00016 6.00124 9.99999
5.99971 5.99823 9.99887
7 5.99867 9.99882
7.99995 6.0001 9.99935
9.00076 5.99976 9.99894
9.99905 7.00221 0.000922976
1.00067 6.99872 0.000999696
2.00141 7.00011 0.00066322
3.00029 7.0003 2.09248e-05
4.00063 7.0029 0.000454304
5.00049 6.99994 9.99932
5.99762 6.99943 9.99958
7.00143 7.00047 9.99827
7.99923 6.99839 2.39943e-06
8.99931 6.9981 0.00120836
9.99928 7.99887 0.00058271
1.00076 7.99963 9.99845
1.99911 7.9992 0.000138001
3.00011 8.00006 0.000586188
3.99794 7.99912 0.000284448
5.00046 8.00022 9.99978
5.99936 8.0005 0.001052
7.00002 8.00119 0.00132056
8.00116 8.00028 9.99847
9.00147 7.99913 9.99977
9.99973 8.99955 0.00202274
1.00021 9.00035 9.99945
1.99967 8.99974 9.99968
3.00029 9.00065 9.99994
3.99973 8.99929 9.99885
4.99977 8.99925 9.99914
5.99915 8.99849 9.99998
6.9993 8.99981 0.000178177
8.00082 9.00106 0.000500888
8.99906 8.99953 9.99779
CELLS 100 200
1 0
1 1
1 2
1 3
1 4
1 5
1 6
1 7
1 8
1 9
1 10
1 11
1 12
1 13
1 14
1 15
1 16
1 17
1 18
1 19
1 20
1 21
1 22
1 23
1 24
1 25
1 26
1 27
1 28
1 29
1 30
1 31
1 32
1 33
1 34
1 35
1 36
1 37
1 38
1 39
1 40
1 41
1 42
1 43
1 44
1 45
1 46
1 47
1 48
1 49
1 50
1 51
1 52
1 53
1 54
1 55
1 56
1 57
1 58
1 59
1 60
1 61
1 62
1 63
1 64
1 65
1 66
1 67
1 68
1 69
1 70
1 71
1 72
1 73
1 74
1 75
1 76
1 77
1 78
1 79
1 80
1 81
1 82
1 83
1 84
1 85
1 86
1 87
1 88
1 89
1 90
1 91
1 92
1 93
1 94
1 95
1 96
1 97
1 98
1 99
CELL_TYPES 100
1
1
1
1
1
1
1
1
1
1
1
1
1
1
1
1
1
1
1
1
1
1
1
1
1
1
1
1
1
1
1
1
1
1
1
1
1
1
1
1
1
1
1
1
1
1
1
1
1
1
1
1
1
1
1
1
1
1
1
1
1
1
1
1
1
1
1
1
1
1
1
1
1
1
1
1
1
1
1
1
1
1
1
1
1
1
1
1
1
1
1
1
1
1
1
1
1
1
1
1
POINT_DATA 100
VECTORS velocity float
-25.3236 -68.5775 2.23581
-9606.63 158.295 31.7704
-9736.59 -48.6298 51.9022
-9954.37 -202.081 -32.8126
-9730.63 39.3672 45.4396
-9615.04 265.847 8.63166
-9818.92 -341.444 30.4294
-9916.44 -49.2412 14.4383
-9528.15 -155.413 8.91212
10.0399 -164.517 10.0727
-76.55 -9713.99 -23.9244
-9680.36 -9787.7 -19.6699
-9788.12 -9776.85 -37.3136
-9824.29 -9480.35 1.62827
-9607.74 -9818.86 -13.2323
-9799.73 -10133.6 -23.1232
-9688.77 -9841.93 23.2836
-9901.34 -9608.05 -36.9838
-9471.33 -9793.97 34.569
18.1459 -9775.63 -5.67286
-548.14 -10012 14.4309
-9446.27 -10046.7 -5.92569
-10131.5 -10129.8 -10.0691
-9784.99 -10077.2 21.1529
-9684.63 -9923.16 -51.3769
-9736.77 -9727.32 89.7775
-9900.98 -9695.49 -32.7775
-9721.81 -10435.4 21.5178
-9671.06 -9988.35 -14.011
-8.40305 -9723.89 13.994
-150.814 -9723.42 -25.8809
-9344.94 -9944.62 28.3971
-10081.1 -9651.29 16.1751
-9568.66 -9816.92 -7.66386
-9753.73 -10036.7 3.82326
-9901.51 -10091.7 -29.4774
-9653.55 -10196 4.31391
-9735.52 -9344.64 -4.90178
-9670.42 -9719.81 11.4828
-1.9439 -10178.3 -18.8546
76.9545 -9731.13 0.231917
-9529.83 -9922.6 -47.6309
-10149.3 -9882.41 4.30688
-9707.84 -9952.8 51.2023
-9525.88 -9847.11 -11.8353
-10059.6 -10216.6 -27.3226
-9663.68 -9863.03 14.974
-9595.59 -10161.2 12.7929
-9695.07 -9774.42 -10.7244
8.24989 -9820.11 1.31292
-438.764 -10120.8 14.6891
-9891.83 -9760.77 18.7603
-9650.45 -9908.49 2.50836
-9648.04 -10021.7 -24.4064
-10074.6 -10041.7 -18.0226
-9599.4 -9388.35 17.596
-10008.1 -10072.8 32.629
-9338.98 -9970.22 -13.6586
-9903.69 -10052.6 11.2244
-7.79848 -9850.05 13.569
412.584 -9565.02 -13.9008
-9719.62 -10060.7 -13.9096
-9651.65 -9956.97 -6.29391
-9867.11 -9690.61 35.408
-9756.74 -9336.44 -19.7876
-9817.61 -10037.4 17.6952
-9695.5 -9749.23 -6.41504
-9776.36 -9684.57 -0.0552995
-9644.28 -10117.6 -2.71015
15.0547 -10111.6 -22.8439
236.085 -10262.8 0.2287
-9661.39 -9796.35 27.8902
-9875.96 -10016.7 11.7243
-9710.75 -9955.46 -9.76607
-9743.43 -10365.2 12.8416
-10127.6 -9856.91 -7.25153
-9295.53 -9770.7 -2.16038
-10025.2 -9785.19 -47.0265
-9762.14 -9655.41 2.68367
-20.6744 -9767.17 14.1142
465.309 -9819.54 14.9428
-9961.71 -9801.94 -26.8429
-9632.32 -9836.78 0.225244
-10037.2 -9814.51 9.4927
-9454.68 -9885.73 18.8611
-9889.99 -10026.2 -6.28285
-9667.94 -10164.6 8.4129
-9601.11 -10065.9 38.846
-9713.09 -9787.07 -32.1787
21.481 -9845.68 18.9108
-23.3832 -7.55602 65.7976
-9822.94 6.00566 -2.22439
-9675.1 -8.7749 -2.54467
-9824.93 13.3545 10.7382
-9750.2 0.352305 -2.90535
-9832.82 7.4437 -8.20158
-9735.5 -12.8373 -1.96725
-9562.75 -11.9737 -3.07863
-9978.7 15.3306 27.0622
-0.00937148 -0.00468366 -0.0220585

METADATA
grid_size_x 10
grid_size_y 10
grid_size_z 10
